
#(C) 2023 by FIZ Karlsruhe - Leibniz Institute for Information Infrastructure.  All rights reserved.
data_35864-ICSD
_database_code_ICSD 35864
_audit_creation_date 2022-02-01
_chemical_name_common '1T-Titanium diselenide'
_chemical_formula_structural 'Ti Se2'
_chemical_formula_sum 'Se2 Ti1'
_chemical_name_structure_type CdI2(hP3)
_exptl_crystal_density_diffrn 5.24
_diffrn_ambient_temperature 300.
_citation_title

;
Effect of Cu intercalation and pressure on excitonic interaction in
1T-TiSe$_2$
;
loop_
_citation_id
_citation_journal_full
_citation_year
_citation_journal_volume
_citation_page_first
_citation_page_last
_citation_journal_id_ASTM
primary 'Physical Review B' 2019 99 '' '' PRBHB7
loop_
_citation_author_citation_id
_citation_author_name
primary 'Kitou, S.'
primary 'Nakano, A.'
primary 'Kobayashi, S.'
primary 'Sugawara, K.'
primary 'Katayama, N.'
primary 'Maejima, N.'
primary 'Machida, A.'
primary 'Watanuki, T.'
primary 'Ichimura, K.'
primary 'Tanda, S.'
primary 'Nakamura, T.'
primary 'Sawa, H.'
_cell_length_a 3.5395(3)
_cell_length_b 3.5395(3)
_cell_length_c 6.0082(4)
_cell_angle_alpha 90.
_cell_angle_beta 90.
_cell_angle_gamma 120.
_cell_volume 65.19
_cell_formula_units_Z 1
_space_group_name_H-M_alt 'P -3 m 1'
_space_group_IT_number 164
loop_
_space_group_symop_id
_space_group_symop_operation_xyz
1 'x-y, -y, -z'
2 '-x, -x+y, -z'
3 'y, x, -z'
4 'x-y, x, -z'
5 'y, -x+y, -z'
6 '-x, -y, -z'
7 '-x+y, y, z'
8 'x, x-y, z'
9 '-y, -x, z'
10 '-x+y, -x, z'
11 '-y, x-y, z'
12 'x, y, z'
loop_
_atom_type_symbol
_atom_type_oxidation_number
Se2- -2
Ti4+ 4
loop_
_atom_site_label
_atom_site_type_symbol
_atom_site_symmetry_multiplicity
_atom_site_Wyckoff_symbol
_atom_site_fract_x
_atom_site_fract_y
_atom_site_fract_z
_atom_site_B_iso_or_equiv
_atom_site_occupancy
Se1 Se2- 2 d 0.6667 0.3333 0.25514(5) 0.659(6) 1.
Ti1 Ti4+ 1 a 0 0 0 0.896(10) 1.
#End of TTdata_35864-ICSD