data_exp_785_80k_autofab
_audit_creation_date               2025-08-13
_audit_creation_method
;
Olex2 1.5
(compiled 2025.07.13 svn.rb7424aed for OlexSys, GUI svn.r7314)
;
_shelx_SHELXL_version_number       '2019/3'
loop_
  _audit_author_name
  _audit_author_email
  _audit_author_address
 'Mihalyi-Koch, W.' ? ?

_audit_contact_author_address      ?
_audit_contact_author_email        ?
_audit_contact_author_name         ''
_audit_contact_author_phone        ?
_publ_contact_author_id_orcid      ?
_publ_section_references
;
Dolomanov, O.V., Bourhis, L.J., Gildea, R.J, Howard, J.A.K. & Puschmann, H.
 (2009), J. Appl. Cryst. 42, 339-341.

Sheldrick, G.M. (2015). Acta Cryst. C71, 3-8.
;
_chemical_name_common              ?
_chemical_name_systematic          ?
_chemical_formula_moiety           'Br2 O V'
_chemical_formula_sum              'Br2 O V'
_chemical_formula_weight           226.76
_chemical_absolute_configuration   ?
_chemical_melting_point            ?
_chemical_oxdiff_formula           VOBr2
loop_
  _atom_type_symbol
  _atom_type_description
  _atom_type_scat_dispersion_real
  _atom_type_scat_dispersion_imag
  _atom_type_scat_source
 'O' 'O' 0.0492 0.0322 'International Tables Vol C Tables 4.2.6.8 and 6.1.1.4'
 'V' 'V' 0.0687 2.1097 'International Tables Vol C Tables 4.2.6.8 and 6.1.1.4'
 'Br' 'Br' -0.6763 1.2805
 'International Tables Vol C Tables 4.2.6.8 and 6.1.1.4'

_shelx_space_group_comment
;
The symmetry employed for this shelxl refinement is uniquely defined
by the following loop, which should always be used as a source of
symmetry information in preference to the above space-group names.
They are only intended as comments.
;
_space_group_crystal_system        'orthorhombic'
_space_group_IT_number             44
_space_group_name_H-M_alt          'I m m 2'
_space_group_name_Hall             'I 2 -2'
loop_
  _space_group_symop_operation_xyz
 'x, y, z'
 '-x, -y, z'
 'x, -y, z'
 '-x, y, z'
 'x+1/2, y+1/2, z+1/2'
 '-x+1/2, -y+1/2, z+1/2'
 'x+1/2, -y+1/2, z+1/2'
 '-x+1/2, y+1/2, z+1/2'

_cell_length_a                     3.5349(2)
_cell_length_b                     12.6524(7)
_cell_length_c                     3.8028(2)
_cell_angle_alpha                  90
_cell_angle_beta                   90
_cell_angle_gamma                  90
_cell_volume                       170.080(16)
_cell_formula_units_Z              2
_cell_measurement_reflns_used      1082
_cell_measurement_temperature      80.2(8)
_cell_measurement_theta_max        77.2000
_cell_measurement_theta_min        7.0670
_shelx_estimated_absorpt_T_max     0.789
_shelx_estimated_absorpt_T_min     0.167
_exptl_absorpt_coefficient_mu      49.864
_exptl_absorpt_correction_T_max    0.792
_exptl_absorpt_correction_T_min    0.185
_exptl_absorpt_correction_type     cylinder
_exptl_absorpt_process_details
;
CrysAlisPro 1.171.44.92a (Rigaku Oxford Diffraction, 2025)
Analytical numeric absorption correction using a multifaceted crystal
model based on expressions derived by R.C. Clark & J.S. Reid.
(Clark, R. C. & Reid, J. S. (1995). Acta Cryst. A51, 887-897)
Empirical absorption correction using spherical harmonics,
implemented in SCALE3 ABSPACK scaling algorithm.
;
_exptl_absorpt_special_details     ?
_exptl_crystal_colour              yellow
_exptl_crystal_colour_primary      yellow
_exptl_crystal_density_diffrn      4.428
_exptl_crystal_density_meas        ?
_exptl_crystal_density_method      ?
_exptl_crystal_description         plate
_exptl_crystal_F_000               202
loop_
  _exptl_crystal_face_index_h
  _exptl_crystal_face_index_k
  _exptl_crystal_face_index_l
  _exptl_crystal_face_perp_dist
 1 -2 0 0.0306
 -1 2 0 0.0161
 0 0 1 0.0144
 0 0 -1 0.0178
 0 -1 0 0.0039
 0 1 0 0.0010

_exptl_crystal_size_max            0.056
_exptl_crystal_size_mid            0.032
_exptl_crystal_size_min            0.005
loop_
  _exptl_oxdiff_crystal_face_indexfrac_h
  _exptl_oxdiff_crystal_face_indexfrac_k
  _exptl_oxdiff_crystal_face_indexfrac_l
  _exptl_oxdiff_crystal_face_x
  _exptl_oxdiff_crystal_face_y
  _exptl_oxdiff_crystal_face_z
 0.9997 -1.9932 0.0025 0.4724 -0.1591 -0.0015
 -0.9997 1.9932 -0.0025 -0.4724 0.1591 0.0015
 -0.0050 -0.0022 0.9997 0.0001 -0.0005 0.4049
 0.0050 0.0022 -0.9997 -0.0001 0.0005 -0.4049
 0.0005 -0.9977 0.0006 0.0223 -0.1195 0.0002
 -0.0005 0.9977 -0.0006 -0.0223 0.1195 -0.0002

_exptl_transmission_factor_max     ?
_exptl_transmission_factor_min     ?
_diffrn_reflns_av_R_equivalents    0.0355
_diffrn_reflns_av_unetI/netI       0.0198
_diffrn_reflns_Laue_measured_fraction_full  1.000
_diffrn_reflns_Laue_measured_fraction_max  1.000
_diffrn_reflns_limit_h_max         4
_diffrn_reflns_limit_h_min         -4
_diffrn_reflns_limit_k_max         16
_diffrn_reflns_limit_k_min         -16
_diffrn_reflns_limit_l_max         4
_diffrn_reflns_limit_l_min         -3
_diffrn_reflns_number              1255
_diffrn_reflns_point_group_measured_fraction_full  0.957
_diffrn_reflns_point_group_measured_fraction_max  0.946
_diffrn_reflns_theta_full          67.684
_diffrn_reflns_theta_max           77.351
_diffrn_reflns_theta_min           7.000
_diffrn_ambient_environment        N~2~
_diffrn_ambient_temperature        80.2(8)
_diffrn_detector                   'Hybrid Pixel Array Detector'
_diffrn_detector_area_resol_mean   10.0000
_diffrn_detector_type              'HyPix-Arc 100'
_diffrn_measured_fraction_theta_full  1.000
_diffrn_measured_fraction_theta_max  1.000
_diffrn_measurement_details
;
List of Runs (angles in degrees, time in seconds):

  # Type    Start    End  Width  t~exp~   \w     \q     \k     \f   Frames
--------------------------------------------------------------------------
  1  \w     45.00  73.00   0.50    0.51    --   76.00  77.00  17.91   56
  2  \w    111.00 178.00   0.50    0.51    --  111.43  77.00 -90.00  134
  3  \w     93.00 126.00   0.50    0.51    --   45.87  19.00-120.00   66
  4  \w     91.00 160.00   0.50    0.51    --  111.43  77.00   0.00  138
  5  \w     84.00 110.00   0.50    0.51    --  111.43  77.00 -90.00   52
  6  \w    119.00 145.00   0.50    0.51    --  111.43  77.00  90.00   52
  7  \w    129.00 155.00   0.50    0.51    --  111.43  77.00 -30.00   52
  8  \w     82.00 107.00   0.50    0.51    --  111.43  77.00-180.00   50
  9  \w     30.00  56.00   0.50    0.51    --   45.87  77.00-180.00   52
 10  \w     90.00 138.00   0.50    0.51    --  111.43  77.00 -60.00   96
 11  \w    127.00 173.00   0.50    0.51    --  111.43  77.00 120.00   92
 12  \w     90.00 124.00   0.50    0.51    --  111.43  77.00 120.00   68
 13  \w     84.00 115.00   0.50    0.51    --  111.43  77.00  90.00   62
 14  \w     88.00 126.00   0.50    0.51    --  111.43  61.00   0.00   76
 15  \w     88.00 126.00   0.50    0.51    --  111.43  61.00-120.00   76
 16  \w     88.00 129.00   0.50    0.51    --  111.43  61.00-180.00   82
 17  \w     98.00 149.00   0.50    0.51    --  111.43  61.00-150.00  102
 18  \w    131.00 176.00   0.50    0.51    --  111.43  30.00-180.00   90
 19  \w    -17.00  11.00   0.50    0.51    --   45.87  19.00-120.00   56
 20  \w     81.00 130.00   0.50    0.51    --  111.43  30.00  90.00   98
 21  \w    143.00 168.00   0.50    0.51    --  111.43  30.00  90.00   50
 22  \w     89.00 133.00   0.50    0.51    --  111.43  61.00  60.00   88
 23  \w    115.00 140.00   0.50    0.51    --  111.43 135.00 -46.00   50
 24  \w    108.00 172.00   0.50    0.51    --  111.43 125.00-150.00  128
 25  \w    108.00 157.00   0.50    0.51    --  111.43 125.00  30.00   98
 26  \w    153.00 178.00   0.50    0.51    --  111.43 125.00  60.00   50
 27  \w    120.00 146.00   0.50    0.51    --  111.43 125.00  60.00   52
 28  \w    109.00 134.00   0.50    0.51    --  111.43 134.00 133.00   50
 29  \w    -56.00 -30.00   0.50    0.51    --    4.00 134.00  50.87   52
 30  \w    100.00 125.00   0.50    0.51    --  111.43 -77.00  30.00   50
 31  \w     87.00 113.00   0.50    0.51    --  111.43 -61.00  30.00   52
 32  \w     46.00  74.00   0.50    0.51    --  111.43 -77.00  30.00   56
 33  \w     47.00  73.00   0.50    0.51    --  111.43 -61.00  30.00   52
 34  \w     56.00  91.00   0.50    0.51    --   45.87-135.00-112.00   70
 35  \w     78.00 103.00   0.50    0.51    --  113.75-117.00-120.36   50
 36  \w     55.00  80.00   0.50    0.51    --  111.43-135.00-112.00   50
 37  \w     49.00  76.00   0.50    0.51    --  111.43-125.00   0.00   54
 38  \w     48.00  87.00   0.50    0.51    --  111.43 -95.00   0.00   78
 39  \w     56.00 103.00   0.50    0.51    --  113.75-117.00  53.98   94
 40  \w     36.00  62.00   0.50    0.51    --  111.43-125.00 150.00   52
 41  \w     54.00  79.00   0.50    0.51    --  111.43-134.00  67.00   50
 42  \w     51.00  87.00   0.50    0.51    --  111.43 -95.00-120.00   72
 43  \w     39.00  70.00   0.50    0.51    --  111.43 -95.00-150.00   62
 44  \w     60.00  86.00   0.50    0.51    --  111.43 -95.00-180.00   52
 45  \w    -83.00 -17.00   0.50    0.51    --  -46.74 -77.00   0.00  132
 46  \w    -61.00 -20.00   0.50    0.51    --  -46.74 -77.00 -90.00   82
 47  \w    -66.00 -17.00   0.50    0.51    --  -46.74 -77.00-180.00   98
 48  \w    -83.00 -15.00   0.50    0.51    --  -84.75 125.00  30.00  136
 49  \w    -58.00 -21.00   0.50    0.51    --  -46.74 -77.00  90.00   74
 50  \w    -87.00 -55.00   0.50    0.51    --  -84.75 -77.00  30.00   64
 51  \w   -107.00 -64.00   0.50    0.51    --  -84.75 -77.00  90.00   86
 52  \w   -118.00 -62.00   0.50    0.51    --  -84.75 -61.00 -60.00  112
 53  \w    -90.00 -64.00   0.50    0.51    --  -84.75 -77.00 -90.00   52
 54  \w    -90.00 -55.00   0.50    0.51    --  -84.75 -77.00-150.00   70
 55  \w   -154.00-128.00   0.50    0.51    --  -84.75 -77.00-150.00   52
 56  \w    -85.00 -60.00   0.50    0.51    --  -84.75 -61.00 -90.00   50
 57  \w    -89.00 -61.00   0.50    0.51    --  -84.75 -61.00 -30.00   56
 58  \w    -85.00 -60.00   0.50    0.51    --  -84.75 -61.00  90.00   50
 59  \w    -86.00 -60.00   0.50    0.51    --  -84.75 -61.00 150.00   52
 60  \w    -94.00 -63.00   0.50    0.51    --  -84.75 -61.00 120.00   62
 61  \w   -138.00-112.00   0.50    0.51    --  -84.75 -61.00 120.00   52
 62  \w   -160.00-135.00   0.50    0.51    --  -84.75 -61.00 150.00   50
 63  \w   -157.00-131.00   0.50    0.51    --  -84.75 -61.00 -30.00   52
 64  \w   -112.00 -86.00   0.50    0.51    --  -46.74-135.00-112.00   52
 65  \w   -151.00-110.00   0.50    0.51    --  -84.75-135.00-112.00   82
 66  \w   -136.00-111.00   0.50    0.51    --  -84.75-134.00  67.00   50
 67  \w   -113.00 -87.00   0.50    0.51    --  -46.74-134.00  67.00   52
;
_diffrn_measurement_device         'four-circle diffractometer'
_diffrn_measurement_device_type    'XtaLAB Synergy, Dualflex, HyPix-Arc 100'
_diffrn_measurement_method         '\w scans'
_diffrn_orient_matrix_type        
 'CrysAlisPro convention (1999,Acta A55,543-557)'
_diffrn_orient_matrix_UB_11        0.4284652000
_diffrn_orient_matrix_UB_12        -0.0221227000
_diffrn_orient_matrix_UB_13        0.0022240000
_diffrn_orient_matrix_UB_21        0.0796543000
_diffrn_orient_matrix_UB_22        0.1197574000
_diffrn_orient_matrix_UB_23        0.0001604000
_diffrn_orient_matrix_UB_31        -0.0024242000
_diffrn_orient_matrix_UB_32        0.0000478000
_diffrn_orient_matrix_UB_33        0.4050110000
_diffrn_oxdiff_digest_hkl
;
01c0677805c4c65a9762e5841fe2a4cb2fd347
;
_diffrn_oxdiff_digest_od_ed
;

;
_diffrn_radiation_monochromator    mirror
_diffrn_radiation_probe            x-ray
_diffrn_radiation_type             'Cu K\a'
_diffrn_radiation_wavelength       1.54184
_diffrn_source                     'micro-focus sealed X-ray tube'
_diffrn_source_type                'PhotonJet (Cu) X-ray Source'
_reflns_Friedel_coverage           0.643
_reflns_Friedel_fraction_full      0.899
_reflns_Friedel_fraction_max       0.874
_reflns_number_gt                  211
_reflns_number_total               212
_reflns_special_details
;
 Reflections were merged by SHELXL according to the crystal
 class for the calculation of statistics and refinement.
 
 _reflns_Friedel_fraction is defined as the number of unique
 Friedel pairs measured divided by the number that would be
 possible theoretically, ignoring centric projections and
 systematic absences. Completness statistics refer to single and
 composite reflections containing twin component 1 only.
;
_reflns_threshold_expression       'I > 2\s(I)'
_computing_cell_refinement         'CrysAlisPro 1.171.44.92a (Rigaku OD, 2025)'
_computing_data_collection         'CrysAlisPro 1.171.44.92a (Rigaku OD, 2025)'
_computing_data_reduction          'CrysAlisPro 1.171.44.92a (Rigaku OD, 2025)'
_computing_molecular_graphics      'Olex2 1.5 (Dolomanov et al., 2009)'
_computing_publication_material    'Olex2 1.5 (Dolomanov et al., 2009)'
_computing_structure_refinement    'SHELXL 2019/3 (Sheldrick, 2015)'
_computing_structure_solution      'SHELXT 2018/2 (Sheldrick, 2018)'
_refine_diff_density_max           1.713
_refine_diff_density_min           -1.173
_refine_diff_density_rms           0.333
_refine_ls_abs_structure_details
;
 Refined as an inversion twin.
;
_refine_ls_abs_structure_Flack     0.07(6)
_refine_ls_extinction_coef         .
_refine_ls_extinction_method       none
_refine_ls_goodness_of_fit_ref     1.162
_refine_ls_hydrogen_treatment      undef
_refine_ls_matrix_type             full
_refine_ls_number_parameters       16
_refine_ls_number_reflns           212
_refine_ls_number_restraints       1
_refine_ls_R_factor_all            0.0457
_refine_ls_R_factor_gt             0.0456
_refine_ls_restrained_S_all        1.159
_refine_ls_shift/su_max            0.000
_refine_ls_shift/su_mean           0.000
_refine_ls_structure_factor_coef   Fsqd
_refine_ls_weighting_details      
 'w=1/[\s^2^(Fo^2^)+(0.0966P)^2^+0.6791P] where P=(Fo^2^+2Fc^2^)/3'
_refine_ls_weighting_scheme        calc
_refine_ls_wR_factor_gt            0.1178
_refine_ls_wR_factor_ref           0.1180
_refine_special_details
;
 Refined as a 2-component inversion twin.
;
_olex2_refinement_description
;
1. Twinned data refinement
 Scales: 0.93(6)
 0.07(6)
;
_atom_sites_solution_hydrogens     .
_atom_sites_solution_primary       ?
_atom_sites_solution_secondary     ?
loop_
  _atom_site_label
  _atom_site_type_symbol
  _atom_site_fract_x
  _atom_site_fract_y
  _atom_site_fract_z
  _atom_site_U_iso_or_equiv
  _atom_site_adp_type
  _atom_site_occupancy
  _atom_site_site_symmetry_order
  _atom_site_calc_flag
  _atom_site_refinement_flags_posn
  _atom_site_refinement_flags_adp
  _atom_site_refinement_flags_occupancy
  _atom_site_disorder_assembly
  _atom_site_disorder_group
 Br1 Br 0.500000 0.64008(9) 1.6642(2) 0.0127(7) Uani 1 2 d S T P . .
 V1 V 1.000000 0.500000 1.7427(13) 0.0179(12) Uani 1 4 d S T P . .
 O1 O 1.000000 0.500000 2.170(6) 0.019(4) Uani 1 4 d S T P . .

loop_
  _atom_site_aniso_label
  _atom_site_aniso_U_11
  _atom_site_aniso_U_22
  _atom_site_aniso_U_33
  _atom_site_aniso_U_23
  _atom_site_aniso_U_13
  _atom_site_aniso_U_12
 Br1 0.0118(9) 0.0155(9) 0.0109(11) 0.0002(5) 0.000 0.000
 V1 0.0145(17) 0.0149(16) 0.024(3) 0.000 0.000 0.000
 O1 0.022(7) 0.010(6) 0.025(10) 0.000 0.000 0.000

_geom_special_details
;
 All esds (except the esd in the dihedral angle between two l.s. planes)
 are estimated using the full covariance matrix.  The cell esds are taken
 into account individually in the estimation of esds in distances, angles
 and torsion angles; correlations between esds in cell parameters are only
 used when they are defined by crystal symmetry.  An approximate (isotropic)
 treatment of cell esds is used for estimating esds involving l.s. planes.
;
loop_
  _geom_bond_atom_site_label_1
  _geom_bond_atom_site_label_2
  _geom_bond_distance
  _geom_bond_site_symmetry_2
  _geom_bond_publ_flag
 Br1 V1 2.5207(11) 1_455 ?
 Br1 V1 2.5207(11) . ?
 V1 O1 1.63(2) . ?
 V1 O1 2.18(2) 1_554 ?

loop_
  _geom_angle_atom_site_label_1
  _geom_angle_atom_site_label_2
  _geom_angle_atom_site_label_3
  _geom_angle
  _geom_angle_site_symmetry_1
  _geom_angle_site_symmetry_3
  _geom_angle_publ_flag
 V1 Br1 V1 89.04(5) 1_455 . ?
 Br1 V1 Br1 89.04(5) 2_665 2_765 ?
 Br1 V1 Br1 166.4(2) 2_765 . ?
 Br1 V1 Br1 89.04(5) 1_655 . ?
 Br1 V1 Br1 89.35(4) 1_655 2_765 ?
 Br1 V1 Br1 89.35(4) 2_665 . ?
 Br1 V1 Br1 166.4(2) 2_665 1_655 ?
 O1 V1 Br1 83.20(11) 1_554 1_655 ?
 O1 V1 Br1 96.80(11) . 2_665 ?
 O1 V1 Br1 83.20(11) 1_554 . ?
 O1 V1 Br1 83.20(11) 1_554 2_665 ?
 O1 V1 Br1 96.80(11) . . ?
 O1 V1 Br1 96.80(11) . 1_655 ?
 O1 V1 Br1 96.80(11) . 2_765 ?
 O1 V1 Br1 83.20(11) 1_554 2_765 ?
 O1 V1 O1 180.00(3) . 1_554 ?
 V1 O1 V1 180.0 . 1_556 ?

_shelx_res_file
;
TITL exp_785_80k_autofab_a.res in Imm2
    exp_785_80k_autofab.res
    created by SHELXL-2019/3 at 09:32:17 on 13-Aug-2025
REM Old TITL exp_785_80k_autofab_a.res in Imm2
REM SHELXT solution in Imm2: R1 0.126, Rweak 0.060, Alpha 0.035
REM <I/s> 0.000 for 0 systematic absences, Orientation a'=b, b'=c, c'=a
REM Flack x = 0.290 ( 0.044 ) from 80 Parsons' quotients
REM Formula found by SHELXT: O4 V
CELL 1.54184 3.5349 12.6524 3.8028 90 90 90
ZERR 2 0.0002 0.0007 0.0002 0 0 0
LATT -2
SYMM -X,-Y,+Z
SYMM +X,-Y,+Z
SYMM -X,+Y,+Z
SFAC O V Br
UNIT 2 2 4

L.S. 12
PLAN  5
SIZE 0.005 0.032 0.056
TEMP -193.0(8)
CONF
MORE -1
list 4
fmap 2
acta
TWIN -1 0 0 0 -1 0 0 0 -1 2
REM <olex2.extras>
REM <HklSrc "%.\\exp_785_80K_autofab.hkl">
REM </olex2.extras>

WGHT    0.096600    0.679100
BASF   0.06614
FVAR       0.72177
BR1   3    0.500000    0.640077    1.664200    10.50000    0.01179    0.01549 =
         0.01088    0.00021    0.00000    0.00000
V1    2    1.000000    0.500000    1.742669    10.25000    0.01452    0.01492 =
         0.02440    0.00000    0.00000    0.00000
O1    1    1.000000    0.500000    2.170367    10.25000    0.02198    0.01030 =
         0.02534    0.00000    0.00000    0.00000
HKLF 4




REM  exp_785_80k_autofab_a.res in Imm2
REM wR2 = 0.1180, GooF = S = 1.162, Restrained GooF = 1.159 for all data
REM R1 = 0.0456 for 211 Fo > 4sig(Fo) and 0.0457 for all 212 data
REM 16 parameters refined using 1 restraints

END

WGHT      0.0966      0.6791

REM Highest difference peak  1.713,  deepest hole -1.173,  1-sigma level  0.333
Q1    1   0.5000  0.7140  1.6666  10.50000  0.05    1.71
Q2    1   1.0000  0.5000  1.5313  10.25000  0.05    1.70
Q3    1   0.5000  0.5666  1.6703  10.50000  0.05    1.49
Q4    1   0.5000  0.5000  1.6704  10.25000  0.05    0.93
Q5    1   1.0000  0.4274  1.7477  10.50000  0.05    0.92
;
_shelx_res_checksum                12929
_shelx_hkl_file
;
   0   0  -2 9259.46  192.24
   0   0   2 9604.88  221.63
   0   0   2 8663.65  183.53
   0   0   4 1443.36   61.34
   0   0   4 1633.28   59.71
   0   1  -3  996.99   33.72
   0  -1  -1 5073.11  101.03
   0   1   1 6867.56  149.91
   0  -1   1 6918.78  150.55
   0   1   1 6602.13  136.47
   0  -1   3 1192.07   41.27
   0   1   3 1175.16   40.09
   0   1   3 1073.38   38.72
   0  -1   3 1088.31   39.51
   0  -1   3 1183.96   41.03
   0   1   3 1291.85   62.41
   0   1   3 1104.87   37.55
   0  -1   3 1342.10   62.28
   0   1   3 1165.84   42.62
   0  -1   3 1247.54   56.87
   0  -1   3 1235.11   41.21
   0   1   3 1242.57   49.94
   0   1   3 1089.74   40.84
   0  -2  -2  235.39   10.63
   0   2  -2  235.98    9.74
   0   2   0  643.33   15.94
   0   2   0  627.65   17.69
   0  -2   0  603.24   15.99
   0   2   2  270.52   14.34
   0  -2   2  308.48   23.77
   0   2   2  319.23   24.34
   0  -2   4  220.23   21.62
   0   2   4  199.01   20.98
   0  -3  -3 2142.38   61.61
   0   3  -3 1938.04   58.35
   0  -3  -1 3006.01   62.17
   0   3  -1 3021.10   61.45
   0   3   1 4099.56   91.29
   0  -3   1 3881.43   90.27
   0   3   3 2604.72   79.81
   0  -3   3 2829.74   74.04
   0  -3   3 2685.66   85.95
   0   3   3 2754.16   72.00
   0  -3   3 2987.16   87.24
   0   3   3 2477.70   78.29
   0  -3   3 2819.50   88.28
   0   3   3 2877.18   74.56
   0   3   3 2846.97   92.74
   0   4  -2 1956.20   51.19
   0  -4  -2 1781.61   49.88
   0   4   0 1656.14   37.30
   0  -4   0 1626.07   37.81
   0   4   2 2082.36   53.13
   0  -4   4 1586.84   47.35
   0  -5  -3  312.82   24.56
   0   5  -3  279.76   22.01
   0  -5  -1  119.60   11.53
   0  -5  -1  129.79   11.85
   0   5  -1  119.25   11.28
   0   5  -1  131.48   11.23
   0  -5   1  194.80   11.26
   0   5   1  174.60   12.15
   0   5   1  198.06   15.05
   0  -5   3  462.13   28.79
   0   5   3  489.81   25.22
   0   5   3  466.31   28.39
   0  -5   3  451.50   25.14
   0  -5   3  475.80   24.84
   0   5   3  469.99   32.16
   0  -5   3  520.36   29.71
   0   6  -2 1749.03   52.35
   0   6  -2 1699.53   54.30
   0  -6  -2 1714.26   51.55
   0  -6  -2 1821.62   56.07
   0   6   0 3979.71   86.46
   0   6   0 4047.87   86.38
   0  -6   0 4031.24   87.60
   0  -6   0 3901.57   86.31
   0  -6   2 1882.35   52.39
   0   6   2 1761.60   51.66
   0   6   2 1798.18   50.82
   0  -6   2 1849.23   50.91
   0   6   2 1657.04   51.33
   0   6   2 1794.24   49.14
   0   6   2 1876.26   51.92
   0  -6   4  260.88   16.56
   0   6   4  265.49   17.10
   0   7  -3 1501.45   45.50
   0  -7  -1 4813.08  109.35
   0   7  -1 4890.99  108.12
   0   7  -1 4812.04  109.50
   0  -7  -1 4903.19  110.99
   0  -7   1 4832.46  110.80
   0   7   1 4998.88  110.68
   0   7   3 1607.94   53.57
   0   7   3 1604.17   55.09
   0   7   3 1624.31   52.72
   0  -7   3 1601.19   51.03
   0  -7   3 1674.91   52.48
   0  -7   3 1723.31   55.86
   0  -7   3 1592.86   53.53
   0  -8  -2 2131.38   59.35
   0   8  -2 2010.95   60.18
   0   8  -2 2203.20   58.20
   0  -8  -2 2090.25   57.84
   0  -8  -2 2166.47   62.54
   0   8   0 4076.31   92.52
   0   8   0 4296.82   92.74
   0  -8   0 3973.76   90.90
   0   8   0 4124.53   90.98
   0  -8   0 4169.14   92.82
   0   8   2 2077.07   60.38
   0   8   2 2088.76   62.27
   0  -8   2 2118.84   58.52
   0   8   2 2094.69   62.97
   0   8   2 2074.43   61.89
   0  -8   2 2150.33   60.34
   0  -8   2 2174.95   64.24
   0  -8   4  359.71   13.70
   0   8   4  389.05   15.33
   0   9  -3   79.82    9.90
   0  -9  -3   74.84   11.73
   0  -9  -1   55.50    8.37
   0   9  -1   65.47    9.09
   0  -9  -1   63.20    9.81
   0   9  -1   80.93   11.19
   0  -9  -1   61.99    8.91
   0  -9  -1   70.92   12.35
   0   9  -1   54.05    9.17
   0  -9   1   79.64   10.13
   0  -9   1   72.63   10.22
   0  -9   1   80.36   10.06
   0   9   1   73.47   11.52
   0  -9   1   72.52    9.56
   0   9   1   68.38   11.51
   0   9   1   72.23   10.77
   0   9   3  101.42   13.02
   0  10  -2  606.40   26.46
   0 -10  -2  613.84   27.37
   0  10  -2  585.49   24.54
   0  10   0  392.82   21.41
   0 -10   0  424.21   20.19
   0 -10   0  422.55   20.25
   0  10   0  398.98   21.29
   0  10   0  432.38   20.81
   0  10   0  415.53   19.00
   0 -10   0  390.85   19.11
   0  10   2  712.93   29.52
   0  10   2  703.66   29.23
   0  10   2  744.52   32.50
   0  10   2  722.24   29.72
   0 -10   2  725.77   30.23
   0  11  -3  922.44   26.89
   0  11  -3  888.17   26.73
   0 -11  -1 1005.19   33.90
   0 -11  -1 1085.02   39.20
   0  11  -1 1075.80   35.68
   0 -11  -1 1094.81   36.00
   0  11  -1 1154.64   37.95
   0 -11  -1 1161.80   38.86
   0  11  -1 1103.80   36.67
   0 -11  -1 1043.55   35.35
   0 -11   1 1199.10   39.09
   0  11   1 1187.32   40.13
   0  11   1 1296.10   43.01
   0  11   1 1104.76   38.38
   0 -11   1 1226.08   40.50
   0 -11   3 1390.13   38.24
   0  11   3 1475.97   38.15
   0  12  -2   82.87    9.08
   0  12  -2   81.01    8.63
   0 -12  -2   89.82    9.10
   0  12   0    4.66    9.70
   0  12   0    9.76    8.74
   0 -12   0    7.29    7.17
   0 -12   0   10.57    7.25
   0 -12   0   13.34    6.76
   0 -12   0    4.63    7.77
   0  12   2  143.20   12.67
   0  12   2  142.56   12.26
   0 -12   2  133.72   11.30
   0 -12   2  123.00   11.08
   0 -13  -1  489.81   21.18
   0 -13  -1  479.26   20.49
   0  13  -1  490.93   21.11
   0 -13   1  486.52   21.72
   0 -13   1  508.88   22.10
   0  13   1  511.16   22.23
   0 -13   1  445.89   19.66
   0  14  -2 1246.85   30.95
   0 -14  -2 1226.69   30.73
   0 -14   0 2146.60   54.94
   0  14   0 2106.11   53.25
   0  14   0 2039.74   53.38
   0  14   2 1167.12   30.25
   0  14   2 1336.75   31.56
   0 -14   2 1207.51   29.89
   0 -14   2 1298.48   30.60
   0 -15  -1  847.11   22.32
   0  15  -1  860.16   23.96
   0 -15   1  946.57   25.30
   0 -15   1  965.04   25.40
   0  15   1  956.97   25.93
   0 -16   0  120.68    5.93
   0  16   0  114.88    6.11
   1   0  -3 2452.28   64.99
  -1   0  -3 2625.62   61.95
   1   0  -1 4643.20   98.78
  -1   0  -1 4708.57   95.67
   1   0  -1 4599.07   98.70
  -1   0  -1 4643.38   97.54
  -1   0   1 4992.19  126.15
   1   0   1 5368.71  128.18
  -1   0   3 3016.10  121.62
  -1   0   3 3802.72  128.71
   1   0   3 4067.67  124.83
   1   0   3 3568.95   86.01
  -1   0   3 3452.72   90.57
   1   0   3 3500.79   88.92
   1   0   3 4062.43  134.89
   1   0   3 3704.60   89.76
  -1   0   3 3505.24  106.41
  -1   0   3 3238.31   88.00
   1   0   3 4126.84  133.39
   1   1  -2  747.02   26.16
   1  -1  -2  749.16   25.51
  -1   1  -2  774.03   24.10
   1   1  -2  774.07   25.92
  -1  -1  -2  757.12   24.38
  -1   1  -2  801.49   25.52
   1  -1   0  349.39   11.37
  -1  -1   0  329.13    9.84
   1   1   0  331.13   10.33
  -1   1   0  318.64   10.40
   1   1   2 1133.20   58.28
  -1   1   2  975.96   52.12
   1  -1   2 1025.40   31.85
  -1  -1   2  930.66   52.82
   1   1   2  978.48   31.14
   1  -1   2 1108.61   57.59
   1  -1   2 1152.43   48.72
   1   1   4  966.29   36.25
   1  -1   4  941.69   35.22
  -1   1   4  909.95   34.88
   1   2  -3  166.89   13.77
   1  -2  -3  163.10   14.83
  -1  -2  -3  164.98   12.99
   1  -2  -1  829.09   23.20
  -1   2  -1  807.19   21.82
   1   2  -1  814.94   22.55
  -1   2   1  892.80   32.40
   1   2   1  847.74   23.09
   1  -2   1  930.38   34.74
   1   2   1  889.94   34.45
  -1   2   1  837.02   23.10
  -1  -2   1  921.09   33.52
  -1  -2   3  190.31   15.39
  -1  -2   3  155.21   25.02
   1   2   3  174.21   18.46
  -1  -2   3  183.01   15.00
  -1  -2   3  211.21   21.97
  -1  -2   3  202.55   16.77
   1   2   3  218.76   28.05
   1   2   3  211.94   23.22
   1   2   3  193.17   15.56
   1  -2   3  216.65   27.99
   1  -2   3  200.37   16.76
   1  -2   3  189.76   17.69
   1   2   3  221.17   29.44
  -1  -2   3  191.75   26.49
   1  -2   3  213.69   16.36
  -1   2   3  147.06   23.39
  -1  -2   3  217.61   19.62
  -1   2   3  211.22   20.12
  -1   2   3  190.44   15.33
  -1  -3  -2 4296.94  100.12
   1   3  -2 4393.21   99.66
  -1  -3  -2 4262.33   94.01
  -1   3  -2 4296.05   93.12
   1  -3  -2 4197.02   95.75
  -1  -3   0 9882.32  196.48
   1   3   0 9860.95  197.68
   1  -3   0 9746.60  198.79
   1  -3   0 9999.00  198.69
  -1   3   2 4717.13  103.57
  -1   3   2 4693.94  126.62
  -1   3   2 4434.64  126.27
   1  -3   2 4813.88  134.83
  -1  -3   2 4510.00  129.11
   1   3   2 4832.39  105.34
  -1  -3   2 4799.14  128.41
   1   3   2 4598.99  133.35
   1   3   4  898.71   40.42
   1  -3   4  863.89   36.14
  -1   3   4  763.58   31.51
  -1  -3   4  856.68   36.64
  -1  -3   4  948.25   35.10
   1  -3   4  949.38   31.48
   1  -3   4  815.65   33.35
  -1   3   4  845.68   33.01
   1  -4  -3 1626.63   50.75
  -1  -4  -3 1637.87   51.24
   1   4  -3 1581.30   53.03
  -1   4  -3 1588.90   49.50
   1  -4  -1 5430.86  114.12
  -1  -4  -1 5447.49  113.70
   1  -4  -1 5451.61  114.81
  -1   4  -1 5499.89  112.92
   1   4   1 5641.63  126.21
   1  -4   1 5690.95  132.91
  -1  -4   1 5570.01  128.90
   1  -4   1 5693.52  131.71
   1   4   1 5481.74  132.07
   1   4   1 5689.54  118.92
   1   4   1 5610.84  119.62
  -1   4   1 5614.30  128.95
   1   4   3 1838.39   55.20
   1   4   3 1873.18   60.93
  -1  -4   3 1706.56   65.69
  -1  -4   3 1782.20   60.82
  -1   4   3 1860.38   53.91
   1   4   3 1829.51   58.47
   1  -4   3 1785.60   56.72
  -1   4   3 1725.68   59.34
  -1   4   3 1584.43   70.74
  -1  -4   3 1530.30   69.63
   1  -4   3 1821.83   54.36
  -1   4   3 1684.36   51.64
   1   4   3 1706.22   56.09
  -1  -4   3 1851.01   54.58
   1   4   3 1835.63   75.40
  -1  -4   3 1848.74   57.72
  -1  -4   3 1898.71   54.82
   1   4   3 1840.89   53.25
   1   5  -2  869.37   29.97
   1  -5  -2  870.60   28.53
  -1   5  -2  900.64   27.94
   1  -5   0 2216.92   52.91
  -1   5   0 2230.98   52.62
   1  -5   0 2195.87   56.73
   1   5   0 2468.16   58.22
  -1   5   0 2327.29   56.70
   1  -5   0 2589.73   57.02
   1  -5   0 2226.60   52.98
  -1  -5   0 2306.76   54.84
   1   5   0 2397.99   58.19
  -1  -5   0 2159.44   56.57
   1   5   2  993.99   32.58
  -1  -5   2  995.31   35.61
   1  -5   2  993.79   38.47
   1  -5   2  947.73   31.59
  -1   5   2  927.64   45.78
  -1  -5   2 1001.46   33.05
  -1  -5   2  877.70   43.52
   1   5   2  950.04   33.34
  -1  -5   2  974.63   34.45
  -1   5   2  879.61   31.45
   1   5   2  840.93   45.67
  -1  -5   2  993.26   38.69
  -1  -5   4  112.66   11.12
   1   5   4  108.62   12.95
  -1  -5   4   96.52   11.13
   1  -5   4  107.57   10.54
   1   5   4  114.09   11.62
  -1   5   4  105.32   12.25
  -1  -6  -3  565.99   23.46
   1  -6  -1  454.68   19.79
   1   6  -1  418.12   22.48
  -1   6  -1  475.22   19.65
  -1   6  -1  479.91   19.13
   1  -6  -1  427.42   19.01
   1   6  -1  446.77   20.12
   1  -6  -1  430.88   21.19
  -1  -6  -1  443.86   19.97
  -1  -6  -1  430.55   17.82
   1   6  -1  474.41   20.09
   1   6  -1  429.88   17.98
  -1  -6   1  561.38   22.26
   1  -6   1  571.40   30.65
   1   6   3  815.26   35.06
   1   6   3  814.64   33.40
  -1  -6   3  820.27   33.58
   1   6   3  748.03   42.71
   1  -6   3  847.68   32.59
  -1   6   3  774.22   33.93
  -1   6   3  818.83   33.49
   1  -6   3  821.53   34.85
   1   6   3  806.73   34.25
   1   6   3  862.64   37.20
  -1  -6   3  844.44   35.39
   1  -7  -2 1352.14   45.25
  -1   7  -2 1310.68   44.16
  -1  -7  -2 1133.58   42.02
  -1   7  -2 1147.85   39.98
  -1  -7  -2 1229.96   39.45
   1   7  -2 1332.63   40.36
  -1  -7   0 1181.46   34.63
  -1   7   0 1247.96   35.66
   1  -7   0 1170.95   35.78
   1  -7   0 1059.25   44.42
   1   7   0 1059.68   45.00
  -1  -7   0 1111.99   36.58
   1   7   0 1081.06   42.45
   1   7   0 1240.77   34.88
   1   7   2 1537.28   49.90
   1  -7   2 1608.33   46.91
   1  -7   2 1510.39   46.73
  -1   7   2 1446.30   46.65
   1   7   2 1509.12   47.95
  -1  -7   2 1597.18   51.15
   1  -7   2 1575.97   49.66
  -1   7   2 1508.73   49.88
   1   7   2 1599.15   51.89
  -1   7   2 1575.92   49.64
   1   7   4 1261.23   31.90
  -1  -7   4 1216.27   32.46
  -1   7   4 1144.29   32.27
   1   8  -3  734.03   26.54
  -1  -8  -3  790.43   27.21
   1  -8  -3  744.71   29.34
  -1   8  -3  780.14   28.58
   1   8  -1  693.99   26.07
  -1  -8  -1  756.31   27.09
   1  -8  -1  737.17   30.94
  -1   8  -1  674.21   28.81
  -1  -8  -1  739.34   31.14
   1  -8  -1  784.05   33.18
  -1   8  -1  729.20   31.53
   1  -8  -1  750.75   32.64
   1   8  -1  701.26   26.07
   1   8   1  821.66   32.37
  -1  -8   1  806.28   28.54
   1  -8   1  850.13   34.50
   1   8   1  842.59   30.81
   1   8   1  903.78   33.74
  -1   8   1  818.19   32.91
  -1  -8   1  860.02   34.46
  -1  -8   1  814.28   30.17
  -1   8   1  796.05   27.69
   1   8   3 1095.07   40.24
   1   8   3 1101.94   41.73
  -1  -8   3 1091.49   37.87
   1  -8   3 1113.96   39.19
   1  -8   3 1085.71   40.11
   1   8   3 1094.54   38.63
  -1  -8   3 1068.37   40.24
   1   8   3 1095.10   39.25
  -1   8   3 1078.74   41.03
  -1  -9  -2  209.61   14.89
   1   9  -2  184.31   15.10
   1  -9  -2  193.96   17.36
  -1  -9  -2  181.14   14.90
  -1   9  -2  182.31   16.43
  -1   9  -2  187.06   16.77
   1  -9  -2  202.39   16.73
  -1  -9  -2  188.10   13.95
   1   9  -2  204.86   15.17
   1  -9   0  479.16   21.91
  -1  -9   0  425.00   20.36
  -1  -9   0  444.50   21.38
  -1  -9   0  438.13   20.81
   1  -9   0  463.84   24.03
   1   9   0  422.92   21.67
   1   9   0  424.99   22.80
   1  -9   0  470.58   22.17
  -1   9   0  423.19   21.81
  -1   9   0  455.34   20.95
  -1  -9   0  463.63   20.86
  -1  -9   2  182.81   15.73
  -1   9   2  191.07   16.45
   1   9   2  216.01   17.29
   1   9   2  217.88   18.85
   1  -9   2  212.99   17.66
   1  -9   2  202.63   15.45
   1   9   2  196.19   17.83
  -1  -9   2  221.42   16.27
   1   9   2  235.76   19.42
  -1   9   2  201.29   17.12
   1   9   2  222.52   18.13
  -1   9   2  189.32   17.41
   1  -9   2  198.81   16.59
   1  10  -3  602.84   21.28
  -1  10  -3  652.75   22.57
   1 -10  -3  616.54   23.20
  -1  10  -1 1826.85   52.40
  -1 -10  -1 1827.73   51.45
   1 -10  -1 1838.92   55.17
   1 -10  -1 1912.06   51.68
  -1 -10  -1 1795.38   51.00
   1  10  -1 1752.11   53.06
   1 -10   1 2026.20   56.70
  -1 -10   1 1979.29   53.69
  -1 -10   1 1931.03   52.51
   1 -10   1 1874.68   54.55
   1  10   1 2004.31   59.97
  -1  10   1 1899.20   56.60
  -1  10   1 1859.30   56.68
   1  10   3  697.52   25.86
  -1 -10   3  672.21   24.07
   1  10   3  712.71   26.50
  -1  10   3  690.10   26.46
   1 -10   3  705.99   24.78
  -1  10   3  635.16   25.81
   1  10   3  724.15   24.84
  -1 -10   3  722.36   25.28
  -1 -11  -2 2022.18   52.94
   1 -11  -2 1992.89   53.71
   1 -11  -2 1973.56   54.38
  -1  11  -2 1987.79   53.34
   1  11  -2 1964.07   52.95
  -1  11  -2 1905.90   51.95
  -1  11   0 3127.52   77.10
   1 -11   0 3263.50   78.38
  -1 -11   0 3087.99   76.90
  -1  11   0 3286.72   80.07
  -1 -11   0 3228.48   78.18
   1 -11   0 2979.88   74.42
  -1 -11   0 3172.07   77.54
   1 -11   0 3004.06   79.80
  -1  11   0 2979.78   76.89
   1  11   0 3079.51   80.99
   1  11   0 3091.77   80.75
  -1 -11   0 3118.85   78.68
   1  11   2 2055.50   55.49
   1  11   2 2135.58   56.77
   1 -11   2 2058.31   55.07
   1 -11   2 2019.70   54.09
  -1 -11   2 1959.46   55.54
  -1 -12  -3   86.07    5.30
   1  12  -3  111.08    6.12
  -1  12  -3  127.01    5.95
   1 -12  -3   99.26    5.03
  -1  12  -1  508.30   22.25
  -1 -12  -1  562.58   23.20
  -1  12  -1  568.43   24.84
  -1 -12  -1  498.27   21.44
   1  12  -1  483.35   22.76
  -1 -12  -1  474.92   21.42
   1 -12  -1  483.60   20.19
  -1 -12  -1  503.24   22.04
  -1 -12  -1  493.09   21.54
   1 -12  -1  595.71   25.15
   1 -12  -1  531.12   22.84
   1  12  -1  491.57   22.62
  -1  12  -1  499.36   22.69
   1 -12   1  521.07   23.44
   1  12   1  558.80   25.33
  -1  12   1  541.63   24.89
  -1  12   1  579.99   25.46
   1 -12   1  559.41   23.87
   1 -12   1  531.06   22.43
   1 -12   1  495.97   22.50
  -1 -12   3  132.89    6.79
   1  12   3  132.14    6.61
   1 -12   3  118.25    6.66
   1 -13  -2   70.87    6.40
  -1 -13  -2   58.79    6.22
  -1  13  -2   58.77    7.05
   1  13  -2   62.58    8.12
  -1  13   0    2.43    6.48
  -1  13   0    8.85    7.74
   1 -13   0    4.40    6.43
  -1 -13   0    5.10    6.12
   1  13   2  109.12    8.48
   1  13   2  101.59    8.39
  -1  13   2  100.25    8.82
   1 -13   2  104.60    9.05
  -1  13   2   76.45    7.59
   1 -13   2  103.62    7.89
  -1  13   2   90.75    7.32
  -1 -13   2   94.23    7.81
  -1  14  -1  540.34   16.68
  -1 -14  -1  431.43   13.04
   1  14  -1  437.15   14.02
   1 -14  -1  534.35   14.17
  -1 -14  -1  542.70   16.03
   1 -14  -1  540.43   17.21
  -1  14  -1  614.72   18.06
   1  14   1  660.75   21.54
   1  14   1  676.28   22.75
  -1  14   1  659.76   22.12
  -1  14   1  593.34   23.22
   1 -14   1  693.45   21.35
   1 -14   1  613.57   22.49
  -1  14   1  628.96   21.05
   1  14   1  651.76   21.51
  -1 -14   1  667.16   22.29
   1 -14   1  658.88   21.81
   1 -15   0  158.30    8.97
  -1 -15   0  170.16    9.39
   1  15   0  181.03    9.27
   1 -15   0  192.98    9.18
  -1  15   0  185.42    9.66
  -2   0  -2 4083.59   94.52
  -2   0  -2 3913.25   93.54
   2   0  -2 4099.20   97.03
  -2   0   0 8285.16  172.83
   2   0   0 8309.79  175.37
   2   0   2 4441.59  104.53
  -2   0   2 4597.60  149.97
   2   0   2 5234.54  162.53
  -2   0   2 4714.61  112.29
   2   0   2 4253.76  151.91
  -2   0   2 4490.93  105.72
   2   0   2 3922.59  144.43
  -2   0   4  997.39   31.38
   2   0   4  968.28   39.28
  -2   0   4  943.44   34.51
  -2  -1  -3  600.29   23.79
   2   1  -3  616.45   25.74
  -2  -1  -3  672.04   27.45
  -2   1  -1 2417.23   57.89
   2   1  -1 2415.99   60.23
   2  -1  -1 2407.47   60.57
  -2  -1  -1 2362.83   57.42
  -2   1  -1 2403.95   57.66
  -2  -1  -1 2395.40   58.89
  -2  -1  -1 2400.33   58.28
   2  -1  -1 2422.62   59.57
  -2   1  -1 2332.22   58.32
   2   1  -1 2440.45   60.66
   2   1   1 2807.19   88.91
  -2  -1   1 2496.26   83.46
   2  -1   1 2751.42   86.52
  -2   1   1 2675.59   83.99
  -2   1   3  790.57   48.12
  -2  -1   3  749.00   47.33
  -2  -1   3  710.70   31.21
  -2  -1   3  777.66   37.50
   2  -1   3  813.69   49.98
   2   1   3  775.00   50.00
  -2   1   3  723.49   38.89
   2  -1   3  759.27   52.24
   2   1   3  783.74   53.48
   2   1   3  716.58   31.25
   2  -1   3  715.83   31.81
  -2   1   3  750.87   50.14
  -2  -1   3  706.47   48.61
   2  -1   3  832.45   54.06
   2   1   3  774.45   52.85
  -2   2  -2  110.82   10.46
   2   2  -2  115.44   11.45
   2  -2  -2  118.58   11.38
  -2  -2  -2   98.32    9.96
  -2   2  -2  109.27   10.26
   2  -2  -2  118.79   12.40
   2  -2  -2  115.32   10.53
  -2  -2   0  153.18   10.94
   2   2   0  151.77   11.04
  -2  -2   0  134.48    9.43
  -2   2   0  143.62   10.47
  -2   2   0  140.97    9.47
   2   2   0  171.79   12.33
   2  -2   0  143.05    9.41
   2   2   2  166.02   27.42
   2   2   2  136.58   12.78
   2  -2   2  145.81   13.69
  -2   2   2  136.81   15.45
  -2  -2   2  127.46   15.10
   2   2   2  125.43   14.05
  -2   2   2  144.72   13.09
  -2  -2   2  128.30   24.49
  -2   2   2  126.83   24.43
   2  -2   2  112.91   23.30
   2   2   2  148.20   26.65
  -2   2   2  149.90   14.06
  -2  -2   2  166.02   15.71
  -2   2   2  154.00   15.01
   2  -2   2  174.48   27.30
   2  -2   2  141.43   26.40
  -2   2   4  147.77   11.25
   2  -2   4  132.71   11.61
   2   2   4  144.16   13.45
   2  -2   4  179.94   14.12
  -2  -2   4    0.37   11.02
  -2   2   4    0.92    2.58
  -2  -3  -3 1242.55   39.67
  -2  -3  -3 1311.21   41.68
   2  -3  -3 1240.28   38.84
   2   3  -3 1283.17   43.92
  -2  -3  -1 1626.61   45.64
   2   3  -1 1594.64   46.84
  -2  -3  -1 1565.46   43.22
  -2   3  -1 1572.08   43.12
   2   3  -1 1737.30   49.70
   2  -3  -1 1700.77   49.14
  -2  -3  -1 1649.89   44.88
   2  -3  -1 1618.90   44.71
  -2  -3   1 1904.33   64.54
  -2   3   1 1908.44   64.53
   2   3   1 1818.94   65.84
   2  -3   1 1873.64   65.50
   2   3   3 1788.35   75.35
   2  -3   3 1715.47   52.09
  -2  -3   3 1833.72   54.36
  -2  -3   3 1776.84   61.43
  -2   3   3 1686.33   57.03
   2  -3   3 1728.82   70.94
   2   3   3 1696.97   71.71
   2  -3   3 1778.16   74.09
   2   3   3 1826.06   78.94
   2   3   3 1707.64   53.01
   2  -3   3 1986.51   56.80
  -2   3   3 1785.64   72.43
  -2  -3   3 1768.54   71.67
   2  -3   3 1726.95   73.74
  -2   3   3 1729.17   55.77
   2   4  -2 1274.52   45.71
  -2  -4  -2 1116.56   38.58
  -2   4  -2 1089.95   35.20
  -2  -4  -2 1125.22   37.12
   2  -4  -2 1314.41   53.02
   2  -4  -2 1097.86   36.60
  -2  -4   0  980.14   33.51
   2  -4   0  983.18   31.91
  -2   4   0 1009.58   31.45
   2   4   0  973.80   36.17
  -2   4   2 1315.58   61.02
   2  -4   2 1300.15   66.58
  -2  -4   2 1282.76   59.24
   2  -4   2 1404.80   44.49
  -2  -4   2 1455.18   45.29
  -2  -4   2 1443.19   48.83
  -2  -4   2 1405.66   48.19
   2   4   2 1323.95   56.86
   2   4   2 1234.78   66.61
   2   4   2 1292.13   69.38
  -2  -4   2 1330.89   63.83
   2  -4   2 1369.84   67.91
  -2   4   2 1405.21   65.88
  -2   4   2 1623.82   52.10
  -2   4   2 1452.98   60.23
  -2   4   2 1466.02   44.87
   2  -4   2 1469.93   61.61
  -2   4   4  957.43   26.53
  -2  -4   4  930.25   26.80
   2   4   4  940.80   30.88
   2  -4   4  941.45   27.20
  -2  -4   4  976.48   29.51
  -2  -5  -3  216.40   19.04
   2  -5  -3  177.51   12.94
  -2   5  -3  191.31   13.13
   2   5  -3  177.64   17.24
  -2  -5  -1   57.49    8.09
  -2  -5  -1   57.62   11.84
   2   5  -1   57.54   12.14
  -2  -5  -1   57.80   10.39
  -2  -5  -1   51.98   10.35
  -2   5  -1   57.46    8.94
   2   5  -1   70.41    9.23
   2  -5  -1   70.20   11.94
   2   5  -1   57.13   11.97
   2   5  -1   59.61    8.56
   2  -5  -1   79.02    9.48
  -2   5  -1   67.31    8.86
   2  -5   1  102.72   11.08
  -2   5   1   98.86   10.56
   2   5   1  109.28   13.04
  -2  -5   1   97.00   16.07
   2   5   1  102.81   12.29
  -2   5   1   93.67   13.02
   2   5   1   93.88   18.85
   2   5   1  111.23   13.63
  -2   5   1  100.75   16.13
  -2   5   1  128.04   17.28
  -2  -5   1  123.46   12.71
  -2   5   1  115.56   17.73
   2  -5   1  117.37   17.36
  -2  -5   1   86.77   15.42
   2  -5   1   97.04   10.04
   2   5   3  344.62   21.72
  -2  -5   3  314.70   24.40
  -2   5   3  338.94   20.64
   2   5   3  298.67   27.79
   2   5   3  263.26   25.71
   2   5   3  382.57   25.76
  -2   5   3  362.81   25.34
   2  -6  -2 1166.80   39.84
   2   6  -2 1006.59   51.21
  -2   6  -2 1131.65   38.86
   2  -6  -2 1057.45   43.29
   2  -6  -2 1104.05   37.84
  -2   6  -2 1095.52   36.42
  -2  -6   0 2274.24   63.47
   2  -6   0 2270.15   59.97
   2  -6   0 2188.89   64.47
   2  -6   0 2245.35   58.86
   2   6   0 2412.31   65.23
   2   6   0 2331.51   61.91
  -2   6   0 2212.84   66.01
  -2   6   0 2068.41   58.54
   2   6   0 2119.52   66.29
  -2  -6   0 2259.44   66.37
   2   6   0 2152.18   61.66
  -2   6   0 2193.94   60.58
   2   6   2 1218.98   43.05
  -2  -6   2 1247.56   43.95
   2  -6   2 1221.65   45.03
  -2  -6   2 1312.60   48.45
   2   6   2 1102.43   42.28
  -2   6   2 1316.00   56.83
  -2   6   2 1185.89   45.37
  -2   6   2 1271.99   42.95
  -2  -7  -3 1125.62   33.10
   2  -7  -3 1044.69   38.28
   2   7  -3  996.88   33.20
  -2   7  -3  990.68   37.02
  -2  -7  -1 3015.74   75.55
  -2  -7  -1 2866.10   71.84
   2   7  -1 2903.44   83.44
   2   7  -1 3034.86   81.31
   2  -7  -1 2919.61   80.53
  -2   7  -1 3010.30   79.85
   2   7   1 2961.62   94.08
   2   7   1 3082.35   86.54
   2  -7   1 3289.70   83.85
  -2   7   1 3223.78   85.12
  -2   7   1 3157.57   84.48
   2   7   1 3011.70   99.40
  -2  -7   1 3402.75   90.29
   2   7   1 3215.59   85.16
  -2   7   1 3443.72   89.76
  -2   7   1 3130.82   83.51
   2  -7   1 3072.33  103.05
   2  -7   1 3330.56   86.50
   2   7   3 1142.47   42.45
  -2  -7   3 1221.71   38.42
   2   7   3 1275.25   39.27
  -2   7   3 1270.52   41.79
   2  -7   3 1196.40   37.78
   2  -7   3 1175.59   41.75
  -2   7   3 1283.19   40.00
   2   7   3 1208.19   40.19
  -2  -7   3 1204.52   38.98
  -2  -8  -2 1340.99   40.41
  -2  -8  -2 1407.55   40.71
  -2  -8  -2 1300.96   47.27
   2  -8  -2 1386.91   50.58
   2   8  -2 1342.97   42.55
  -2   8  -2 1304.74   48.05
   2   8   0 1973.29   81.46
   2  -8   0 2606.15   64.99
  -2  -8   0 2421.87   62.24
   2  -8   0 2063.05   74.94
  -2  -8   0 2544.94   72.88
   2   8   0 1898.59   77.61
  -2   8   0 2463.75   65.42
  -2  -8   0 2109.47   71.99
   2   8   0 2397.61   71.70
  -2   8   0 2443.48   69.32
   2   8   0 2326.69   64.20
   2   8   2 1385.70   49.05
   2   8   2 1450.77   51.28
  -2  -8   2 1499.89   47.49
   2  -8   2 1493.20   45.08
   2   8   2 1569.83   55.17
  -2   8   2 1516.90   49.39
  -2   8   2 1481.48   47.02
  -2   8   2 1552.16   52.58
  -2  -8   2 1455.28   49.24
   2  -9  -3   42.46    4.46
  -2  -9  -3   39.95    4.93
  -2   9  -3   44.76    5.89
   2   9  -3   46.55    5.16
  -2   9  -1   39.13   10.24
  -2  -9  -1   44.84    8.48
  -2  -9  -1   43.46   10.27
  -2  -9  -1   37.88   12.17
  -2   9  -1   36.23   10.08
   2   9  -1   31.96   10.60
   2  -9  -1   36.90   10.07
   2   9  -1   43.28   10.25
   2  -9   1   60.01   11.50
  -2   9   1   55.62   11.81
   2   9   1   63.40   12.36
   2  -9   1   52.47    8.85
  -2  -9   1   40.96    8.48
  -2   9   1   47.76   10.75
   2   9   1   50.59    9.98
  -2   9   1   57.04   10.04
  -2  -9   1   50.48    9.65
   2   9   1   44.13    9.03
  -2  -9   3   85.31    7.60
   2  -9   3   68.43    8.53
   2   9   3   77.50    8.27
   2  -9   3   59.54    6.31
  -2 -10  -2  389.81   16.88
  -2 -10  -2  398.38   18.09
   2 -10  -2  394.74   17.05
  -2 -10  -2  419.49   18.26
  -2  10  -2  390.06   18.21
   2 -10  -2  467.30   20.84
   2 -10  -2  438.74   21.02
   2  10  -2  410.62   19.14
  -2  10  -2  438.53   19.42
  -2  10   0  328.65   17.54
   2 -10   0  313.92   18.46
   2 -10   0  341.58   18.11
  -2 -10   0  338.73   18.32
   2 -10   0  351.89   20.25
  -2 -10   0  345.99   20.10
  -2  10   0  338.89   19.96
  -2  10   0  327.85   20.00
   2  10   0  332.23   21.35
   2  10   0  318.47   19.01
   2  10   2  533.35   21.49
   2  10   2  520.06   22.84
  -2 -10   2  600.34   23.36
   2  10   2  579.07   25.15
  -2  10   2  570.55   23.45
   2 -10   2  524.31   21.97
  -2 -10   2  547.08   22.20
  -2 -11  -1  814.98   28.00
   2 -11  -1  823.34   29.97
  -2  11  -1  817.79   28.08
   2  11   1  902.70   31.27
  -2  11   1  893.10   31.44
   2 -12  -2   60.13    5.21
  -2 -12  -2   54.73    5.30
  -2 -12  -2   47.54    4.97
  -2  12  -2   67.70    6.53
   2  12  -2   59.15    5.50
   2 -12   0   11.30    5.25
   2  12   0    7.42    7.67
  -2 -12   0    9.60    6.41
   2 -12   0   15.25    5.35
  -2  12   0    3.80    6.09
  -2 -12   0    8.09    6.20
  -2  12   0   15.92    7.99
   2  12   0    5.47    5.76
   2  12   0    7.00    5.98
   2  12   2  100.53    7.04
   2 -12   2   92.65    7.86
  -2  12   2   97.62    7.31
  -2 -12   2   96.41    6.58
   2 -13  -1  322.35   12.74
  -2 -13  -1  335.79   13.00
  -2  13  -1  319.98   11.89
  -2 -13  -1  333.52   12.99
  -2  13  -1  394.13   14.88
   2  13  -1  358.15   14.15
   2 -13  -1  291.55   11.51
  -2 -13   1  359.89   13.72
   2  13   1  385.30   14.34
  -2  13   1  385.38   14.66
  -2 -14   0 1431.04   34.37
   2  14   0 1490.99   34.26
  -2  14   0 1490.61   34.46
   3   0  -3 1104.05   32.06
   3   0  -3 1026.19   30.87
  -3   0  -3 1051.77   30.10
  -3   0  -1 1354.37   42.26
   3   0  -1 1340.99   42.48
   3   0  -1 1353.62   45.07
  -3   0  -1 1338.98   43.47
   3   0   1 1699.79   48.28
   3   0   1 1713.14   50.56
  -3   0   1 1553.86   63.71
  -3   0   1 1502.46   79.39
   3   0   1 1610.58   51.92
   3   0   1 1462.14   85.25
  -3   0   1 1780.34   54.93
  -3   0   3 1657.89   57.87
  -3   0   3 1572.27   42.92
  -3   0   3 1703.84   52.02
   3   0   3 1609.87   60.84
   3   0   3 1586.66   64.62
   3   0   3 1516.91   42.19
  -3   0   3 1604.20   61.09
   3   0   3 1439.71   62.85
  -3   1  -2  347.97   20.99
  -3  -1  -2  304.44   17.27
   3   1  -2  323.11   17.99
   3   1  -2  327.31   19.38
   3  -1  -2  324.68   18.62
  -3  -1  -2  285.32   17.01
   3   1   0  166.36   16.18
   3  -1   0  190.21   17.98
   3   1   0  206.31   15.56
   3  -1   0  163.47   14.20
  -3  -1   0  206.30   17.10
  -3   1   0  196.08   17.21
  -3  -1   0  199.75   15.70
  -3   1   0  188.32   15.06
   3   1   2  434.70   21.71
   3  -1   2  452.90   22.35
   3  -1   2  468.24   44.06
  -3  -1   2  387.03   39.41
   3   1   2  415.52   42.43
  -3  -1   2  511.09   28.14
  -3   1   2  554.02   29.75
   3   1   2  438.97   42.51
   3  -1   2  425.85   42.19
   3  -1   2  391.21   35.70
  -3   1   2  442.41   40.35
   3   2  -3   72.89    6.88
   3  -2  -3   69.76    6.93
   3  -2  -3   69.87    7.06
  -3  -2  -3   65.30    6.52
  -3   2  -3   74.93    7.04
  -3   2  -3   67.75    7.07
  -3  -2  -1  303.99   19.34
  -3  -2  -1  255.61   18.49
  -3   2  -1  290.84   18.13
  -3   2  -1  284.12   22.22
   3   2  -1  292.95   18.04
   3   2  -1  288.80   19.15
   3  -2  -1  296.33   17.24
  -3   2  -1  277.41   16.83
   3   2  -1  339.13   21.91
  -3  -2  -1  285.11   18.37
   3  -2   1  298.76   17.96
   3   2   1  303.19   19.37
  -3  -2   1  275.21   26.11
   3   2   1  327.43   22.29
  -3  -2   1  309.05   31.71
  -3   2   1  322.12   31.63
   3  -2   1  302.23   22.20
   3   2   1  293.66   34.76
   3  -2   1  325.43   36.77
  -3  -2   1  311.94   20.79
  -3  -2   3   81.25    7.95
  -3   2   3   91.37    9.52
  -3  -2   3  104.39   11.92
  -3   2   3   89.72   10.54
  -3  -2   3   85.48    9.30
   3  -2   3   97.55   16.80
   3   2   3   96.74   16.15
   3  -2   3   91.66   14.86
   3   2   3   75.77   14.43
   3  -2   3   88.11   11.06
  -3   2   3   99.68   14.89
  -3  -2   3   80.81   14.21
   3   2   3   74.59   14.95
   3  -2   3   84.74   16.12
   3   2   3   94.16   14.81
  -3  -3  -2 1972.33   56.39
  -3   3  -2 1841.23   62.22
   3   3  -2 1926.91   54.83
   3  -3  -2 1856.61   53.09
  -3   3  -2 1783.11   51.26
   3   3  -2 2036.15   62.93
  -3   3   0 3094.04   79.29
   3   3   0 3353.02   83.41
   3   3   0 3259.65   89.59
   3   3   0 3325.14   84.78
   3  -3   0 3074.67   89.36
  -3  -3   0 3595.61   91.10
   3  -3   0 3284.79   85.62
  -3   3   0 3137.65   86.39
  -3  -3   0 3380.57   85.90
  -3   3   0 3437.96   86.99
  -3   3   2 1874.37   74.12
  -3  -3   2 1928.16   75.52
   3  -3   2 2068.46   56.10
  -3  -3   2 2000.21   59.73
  -3  -3   2 2036.46   59.92
   3   3   2 1942.50   66.44
  -3  -3   2 1773.39   77.10
  -3   3   2 1875.30   77.96
   3   3   2 1813.37   80.72
   3  -3   2 1818.87   81.16
  -3   3   2 2205.57   64.07
   3   3   2 1862.79   81.11
   3  -3   2 1967.01   82.77
   3  -3   2 1996.11   73.79
   3   4  -3  686.20   21.94
   3  -4  -3  741.33   23.85
  -3  -4  -1 2228.54   70.09
   3   4  -1 2249.77   60.36
   3   4  -1 2370.07   66.93
   3   4  -1 2211.98   61.03
  -3  -4  -1 2408.99   67.02
   3  -4  -1 2310.46   63.37
  -3   4  -1 2298.65   62.60
  -3  -4  -1 2124.67   61.59
   3   4  -1 2209.46   77.57
   3  -4   1 2398.63   65.44
  -3   4   1 2446.68   67.28
   3   4   1 2530.78   70.19
  -3  -4   1 2381.57   81.78
   3   4   1 2295.43   68.19
  -3  -4   1 2549.58   70.55
   3  -4   1 2685.29   83.79
  -3  -4   3  821.34   25.59
  -3  -4   3  851.46   22.02
   3   4   3  755.65   28.77
   3  -4   3  916.00   25.99
   3   4   3  950.38   25.46
  -3  -5  -2  444.57   22.95
  -3  -5  -2  331.82   18.31
   3  -5  -2  382.37   20.11
  -3   5  -2  396.33   20.19
   3   5  -2  458.13   25.92
   3  -5   0  785.38   31.31
   3   5   0  791.61   34.57
  -3   5   0  762.70   32.00
   3   5   0  791.72   32.02
   3   5   0  760.14   39.32
  -3  -5   0  870.84   39.67
   3   5   0  773.88   33.76
   3  -5   0  741.58   33.95
  -3   5   0  783.51   33.84
  -3  -5   2  437.44   22.78
   3   5   2  467.77   30.06
  -3  -5   2  367.58   30.59
  -3  -5   2  351.69   30.06
   3   5   2  320.54   31.03
   3  -5   2  391.67   32.05
   3  -5   2  482.90   29.57
   3  -6  -3  215.23    9.65
   3   6  -3  225.99   10.10
  -3   6  -3  237.06   10.19
  -3  -6  -1  208.74   14.48
   3  -6  -1  193.26   19.49
  -3   6  -1  165.85   19.81
   3   6  -1  208.24   19.05
  -3  -6  -1  196.86   17.09
   3   6  -1  198.80   15.15
   3  -6   1  255.98   21.96
  -3   6   1  257.05   22.41
   3   6   1  258.60   24.00
  -3  -6   1  251.71   21.08
   3   6   1  267.27   18.18
   3  -6   1  222.15   27.75
  -3   6   3  339.73   13.75
  -3  -6   3  365.92   13.40
   3  -6   3  381.13   14.53
   3   6   3  356.57   13.88
  -3  -7  -2  668.07   22.65
   3  -7  -2  708.40   27.50
   3   7  -2  649.56   24.12
  -3   7  -2  662.11   26.13
   3  -7   0  657.76   31.09
  -3   7   0  695.38   33.02
   3   7   0  641.65   34.68
  -3  -7   0  595.28   35.33
   3   7   0  713.20   34.11
   3  -7   0  643.77   37.28
  -3  -7   2  927.33   30.86
   3  -7   2 1009.71   32.61
  -3   7   2  949.61   35.31
   3   7   2  941.49   37.29
   3  -8  -1  412.30   19.23
  -3  -8  -1  348.50   18.01
  -3  -8  -1  359.09   22.06
  -3   8  -1  366.90   19.18
   3   8  -1  355.16   22.15
   3   8  -1  392.27   19.89
  -3  -8   1  472.06   22.88
   3   8   1  466.24   22.73
   3  -8   1  519.34   29.35
  -3   9  -2   69.70    5.97
  -3  -9  -2   80.04    6.36
  -3  -9  -2   83.98    6.66
   3  -9  -2   89.71    6.36
  -3  -9   0  186.98   12.43
  -3   9   0  188.62   13.87
  -3  -9   0  166.56   12.39
   3   9   0  185.73   14.42
   3  -9   2  102.08    7.24
  -3   9   2  121.43    7.93
  -3  -9   2  102.79    7.52
   3   9   2  110.91    9.28
   3 -10  -1  953.75   26.71
  -3 -10  -1 1005.41   27.09
  -3 -10  -1  959.12   27.20
  -3  10  -1 1004.78   27.76
   3  10  -1 1009.62   29.19
   3  10  -1 1018.14   28.61
   3 -10   1 1090.25   29.18
   3  10   1 1105.56   31.94
   3 -11   0 1672.02   23.39
   3  11   0 1664.25   26.99
   4   0  -2 1177.51   28.35
  -4   0  -2 1194.03   32.89
   4   0   0 2285.04   59.22
  -4   0   0 2124.52   70.75
   4   0   0 2537.14   63.50
  -4   0   0 2319.09   60.72
  -4   0   0 2509.15   63.39
  -4   0   2 1461.77   44.16
  -4   0   2 1392.51   37.08
   4   0   2 1198.42   44.95
  -4   0   2 1299.80   45.36
   4   0   2 1333.78   49.00
   4   1  -1  827.53   25.95
   4  -1  -1  808.49   26.37
   4   1  -1  832.87   32.09
   4  -1  -1  796.10   36.55
  -4  -1  -1  842.22   30.99
   4   1  -1  798.71   27.03
   4  -1  -1  899.91   29.47
  -4   1  -1  765.50   33.53
  -4  -1  -1  807.67   27.29
  -4   1  -1  888.36   29.20
  -4  -1   1  793.22   31.28
   4   1   1  816.28   28.02
   4  -1   1  871.84   28.60
  -4  -1   1  871.23   29.75
  -4   1   1  949.24   32.20
   4   1   1  768.68   43.53
   4  -1   1  792.10   45.10
   4  -1   1  718.06   41.83
  -4   2  -2   21.31    5.27
  -4   2  -2   29.64    5.19
   4   2  -2   23.89    5.63
   4  -2  -2   18.31    5.61
   4  -2  -2   35.80    5.82
  -4  -2  -2   23.99    4.68
  -4   2   0   26.18    9.86
   4   2   0   23.02    6.59
   4  -2   0   31.62    7.24
   4  -2   0   43.56   12.29
  -4  -2   0   19.49    5.76
  -4  -2   0   28.42   10.46
  -4   2   0    3.92    5.11
  -4  -2   2   35.94    9.32
  -4   2   2   47.53    6.10
   4  -2   2   32.93    8.88
   4   2   2   29.61    8.51
   4   2   2   29.17    7.46
   4  -2   2   37.79    7.55
  -4   2   2   42.32    7.59
  -4  -2   2   43.81    7.59
   4   3  -1  527.16   19.22
  -4  -3  -1  533.10   22.77
   4   3  -1  481.30   23.20
  -4   3  -1  444.52   18.26
   4  -3  -1  465.84   24.85
  -4   3  -1  452.86   23.92
   4  -3   1  576.83   19.57
  -4  -3   1  521.08   18.73
  -4  -3   1  606.70   22.66
   4   3   1  598.59   25.21
   4  -3   1  563.47   24.20
   4   3   1  521.11   30.03
   4  -3   1  549.67   31.45
   4   4   0  436.61   19.07
  -4  -4   0  391.00   20.49
   4   4   0  415.52   15.04
   4  -4   0   78.61    9.23
  -4   4   0   11.55    6.66
  -4   5  -1   18.54    4.42
  -4  -5  -1   16.83    6.30
   4   5  -1   22.33    5.45
   4  -5  -1   17.70    4.78
  -4  -5  -1   14.17    5.94
  -4  -5   1   39.85    5.34
   4  -5   1   34.25    9.17
   4   5   1   38.98    8.74
  -4   5   1   28.47    5.02
  -4  -6   0  725.85   22.92
   4   6   0  658.30   19.92
  -4   6   0  668.50   21.85
   0   0   0    0.00    0.00



TITL exp_785_80K_autofab in Imm2
REM Imm2 (#44, found as Im2m in a-cb setting)
CELL 1.54184   3.534888  12.652367   3.802835  90.0000  90.0000  90.0000
ZERR    2.00   0.000187   0.000687   0.000235   0.0000   0.0000   0.0000
LATT -2
SYMM -x,-y, z
SYMM  x,-y, z
SYMM -x, y, z
SFAC O V Br
UNIT 2.00 2.00 4.00
REM  CrysAlisPro recorded range (K): Min=79.6; max=80.8; aver:80.2
TEMP -193
SIZE 0.005 0.032 0.056
TREF
HKLF 4
END
_computing_structure_solution     'SHELXT 2018/2 (Sheldrick, 2018)'
_computing_structure_solution     'SHELXT 2018/2 (Sheldrick, 2018)'
;
_shelx_hkl_checksum                41497
_olex2_submission_special_instructions  'No special instructions were received'
_oxdiff_exptl_absorpt_empirical_details
;
Empirical correction (ABSPACK) includes:
- Absorption correction using spherical harmonics
- Frame scaling
;
_oxdiff_exptl_absorpt_empirical_full_max  1.571
_oxdiff_exptl_absorpt_empirical_full_min  0.698
loop_
  _twin_individual_id
  _twin_individual_mass_fraction_refined
 1 0.93(6)
 2 0.07(6)

_vrf_PLAT431_exp_785_80k_autofab
;
PROBLEM: Short Inter HL..A Contact  Br1      ..O1       .       3.13 Ang.  
RESPONSE: There is no hydrogen bonding interaction between the O1 and Br1
atoms.
;
_vrf_PLAT971_exp_785_80k_autofab
;
PROBLEM: Check Calcd Resid. Dens.  1.08Ang From Br1             1.61 eA-3  
RESPONSE: The absorption correction was not completely effective and as a
result, there is residual electron density near the heaviest atoms. This 
residual density is chemically unreasonable and is considered noise.
;
_vrf_PLAT973_exp_785_80k_autofab
;
PROBLEM: Check Calcd Positive Resid. Density on        V1       1.17 eA-3  
RESPONSE: The absorption correction was not completely effective and as a
result, there is residual electron density near the heaviest atoms. Attempts 
to model the V1 site as disordered did not yield a computationally stable 
model. 
;
_vrf_PLAT975_exp_785_80k_autofab
;
PROBLEM: Check Calcd Resid. Dens.  1.01Ang From O1      .       0.56 eA-3  
RESPONSE: The absorption correction was not completely effective and as a
result, there is residual electron density that is considered noise. 
;
_vrf_PLAT976_exp_785_80k_autofab
;
PROBLEM: Check Calcd Resid. Dens.  0.64Ang From O1      .      -0.71 eA-3  
RESPONSE: The absorption correction was not completely effective and as a
result, there is residual electron density that is considered noise.  
;
